 Gaussian 03, Revision E.01,
 Gaussian 03:  EM64M-G03RevE.01 11-Sep-2007

 ------------------------------
 #n B3LYP/3-21G* Opt Symm=Loose
 ------------------------------

 -----------
 benzene.g03
 -----------
 Symbolic Z-matrix:
 Charge =  0 Multiplicity = 1

 SCF Done:  E(RB+HF-LYP) =  -230.975769645     A.U. after   10 cycles
 Optimization completed.
    -- Stationary point found.

                         Standard orientation:
 ---------------------------------------------------------------------
 Center     Atomic     Atomic              Coordinates (Angstroms)
 Number     Number      Type              X           Y           Z
 ---------------------------------------------------------------------
    1          6             0        0.000000    1.210360    0.698780
    2          6             0        0.000000    0.000000    1.397390
    3          6             0        0.000000   -1.210360    0.698780
    4          6             0        0.000000   -1.210360   -0.698780
    5          6             0        0.000000    0.000000   -1.397390
    6          6             0        0.000000    1.210360   -0.698780
    7          1             0        0.000000    2.149180    1.240870
    8          1             0        0.000000    0.000000    2.481490
    9          1             0        0.000000   -2.149180    1.240870
   10          1             0        0.000000   -2.149180   -1.240870
   11          1             0        0.000000    0.000000   -2.481490
   12          1             0        0.000000    2.149180   -1.240870
 ---------------------------------------------------------------------

 The electronic state is 1-AG.
 Alpha  occ. eigenvalues --  -10.12838 -10.12774 -10.12773 -10.12660 -10.12660
 Alpha  occ. eigenvalues --  -10.12555  -0.85540  -0.74616  -0.74615  -0.60479
 Alpha  occ. eigenvalues --   -0.60477  -0.52833  -0.46072  -0.45265  -0.42614
 Alpha  occ. eigenvalues --   -0.42610  -0.36613  -0.34620  -0.34613  -0.25104
 Alpha  occ. eigenvalues --   -0.25103
 Alpha virt. eigenvalues --    0.00519   0.00523   0.10655   0.16434   0.16435
 Alpha virt. eigenvalues --    0.16541   0.20652   0.20652   0.21257   0.32448
 Alpha virt. eigenvalues --    0.32448   0.33705   0.33711   0.57661   0.57739

 Mulliken atomic charges:
              1
     1  C   -0.186037
     2  C   -0.185993
     3  C   -0.186037
     4  C   -0.186037
     5  C   -0.185993
     6  C   -0.186037
     7  H    0.186024
     8  H    0.186018
     9  H    0.186024
    10  H    0.186024
    11  H    0.186018
    12  H    0.186024
 Sum of Mulliken charges=   0.00000

 Dipole moment (field-independent basis, Debye):
    X=     0.0000    Y=     0.0000    Z=     0.0000  Tot=     0.0000
 Quadrupole moment (field-independent basis, Debye-Ang):
   XX=   -39.9017   YY=   -31.1852   ZZ=   -31.1879
   XY=     0.0000   XZ=     0.0000   YZ=     0.0000

 Normal termination of Gaussian 03 at Fri May 13 23:19:04 2011.
