 Gaussian 09, Revision D.01,
 Gaussian 09:  EM64L-G09RevD.01 24-Apr-2013

 --------------------------------------------------------------
 #p HF/GEN scf=tight nosymm pop=full gfprint guess=read gfinput
 --------------------------------------------------------------

 ----------------------
 ch4 high ang. mo. test
 ----------------------
 Symbolic Z-matrix:
 Charge =  0 Multiplicity = 1

                          Input orientation:
 ---------------------------------------------------------------------
 Center     Atomic      Atomic             Coordinates (Angstroms)
 Number     Number       Type             X           Y           Z
 ---------------------------------------------------------------------
      1          6           0        0.000000    0.000000    0.000000
      2          1           0        0.629118    0.629118    0.629118
      3          1           0       -0.629118   -0.629118    0.629118
      4          1           0        0.629118   -0.629118   -0.629118
      5          1           0       -0.629118    0.629118   -0.629118
 ---------------------------------------------------------------------

 SCF Done:  E(RHF) =  -12.6997355897     A.U. after    1 cycles

 Alpha  occ. eigenvalues --   -2.31548  -0.73710  -0.73710  -0.73323  -0.20843
 Alpha virt. eigenvalues --    0.07042   0.07042   0.11732   0.13567   0.24457
 Alpha virt. eigenvalues --    0.25869   0.27274   0.27274   0.29866   0.29866
 Alpha virt. eigenvalues --    0.29869   0.31103   0.31492   0.31492   0.31800

 Mulliken charges:
               1
     1  C    3.583261
     2  H   -0.895815
     3  H   -0.895815
     4  H   -0.895815
     5  H   -0.895815
 Sum of Mulliken charges =   0.00000

 Dipole moment (field-independent basis, Debye):
    X=              0.0000    Y=              0.0000    Z=              0.0000  Tot=              0.0000
 Quadrupole moment (field-independent basis, Debye-Ang):
   XX=            -24.7548   YY=            -27.1234   ZZ=            -27.1234
   XY=              0.0000   XZ=              0.0000   YZ=              0.0000

 Normal termination of Gaussian 09 at Thu Jul 24 16:29:33 2014.
