 Gaussian 03, Revision E.01,
 Gaussian 03:  EM64M-G03RevE.01 11-Sep-2007

 -------------------
 #n B3LYP/6-31G* Opt
 -------------------

 99/9=1/99;

 Symbolic Z-matrix:
 Charge =  0 Multiplicity = 1

 SCF Done:  E(RB+HF-LYP) =  -2782.01030277     A.U. after   15 cycles
 SCF Done:  E(RB+HF-LYP) =  -2782.02331792     A.U. after   14 cycles
 SCF Done:  E(RB+HF-LYP) =  -2782.02468797     A.U. after   13 cycles
 SCF Done:  E(RB+HF-LYP) =  -2782.02483615     A.U. after   12 cycles
 SCF Done:  E(RB+HF-LYP) =  -2782.02485662     A.U. after   11 cycles
 SCF Done:  E(RB+HF-LYP) =  -2782.02486177     A.U. after    8 cycles
 Optimization completed.
    -- Stationary point found.

                          Input orientation:
 ---------------------------------------------------------------------
 Center     Atomic     Atomic              Coordinates (Angstroms)
 Number     Number      Type              X           Y           Z
 ---------------------------------------------------------------------
    1          0             0        0.053695    0.022019   -0.007174
    2          6             0       -2.270972    1.925676    0.019477
    3          6             0       -0.862544    1.634459   -0.118246
    4          6             0       -3.081256    0.834013    0.087498
    5         34             0       -2.087063   -0.745867   -0.029149
    6          6             0       -0.549726    0.310568   -0.166437
    7          8             0       -2.737740    3.213575    0.097769
    8          1             0       -4.156296    0.837275    0.190639
    9          1             0        0.438838   -0.112744   -0.266194
   10          8             0        0.074886    2.631548   -0.215716
   11          6             0       -0.413171    3.903143    0.223656
   12          6             0       -1.788493    4.181229   -0.361333
   13          1             0        0.315532    4.642655   -0.118759
   14          1             0       -0.460062    3.926764    1.321518
   15          1             0       -1.739981    4.165527   -1.459276
   16          1             0       -2.164737    5.154160   -0.034224
 ---------------------------------------------------------------------

 Alpha  occ. eigenvalues -- -453.86711 -57.46647 -52.15124 -52.15040 -52.14759
 Alpha  occ. eigenvalues --  -19.18079 -19.18077 -10.25319 -10.25295 -10.24597
 Alpha  occ. eigenvalues --  -10.24558 -10.20239 -10.20238  -7.72338  -5.76844
 Alpha  occ. eigenvalues --   -5.76485  -5.75811  -2.12534  -2.12467  -2.11878
 Alpha  occ. eigenvalues --   -2.11590  -2.11513  -1.08406  -1.04996  -0.85233
 Alpha  occ. eigenvalues --   -0.76862  -0.73069  -0.68817  -0.64446  -0.58664
 Alpha  occ. eigenvalues --   -0.54172  -0.53558  -0.49606  -0.48119  -0.44188
 Alpha  occ. eigenvalues --   -0.43527  -0.42185  -0.39925  -0.39182  -0.36964
 Alpha  occ. eigenvalues --   -0.33890  -0.33386  -0.30489  -0.30255  -0.21303
 Alpha  occ. eigenvalues --   -0.20696
 Alpha virt. eigenvalues --   -0.00578   0.01776   0.06562   0.08411   0.10352
 Alpha virt. eigenvalues --    0.11499   0.12791   0.14292   0.14744   0.15880
 Alpha virt. eigenvalues --    0.17366   0.18334   0.21607   0.24758   0.26836

 Mulliken atomic charges:
              1
     1  Bq   0.000000
     2  C    0.353692
     3  C    0.353827
     4  C   -0.307322
     5  Se   0.087535
     6  C   -0.307386
     7  O   -0.515475
     8  H    0.167348
     9  H    0.167339
    10  O   -0.515455
    11  C   -0.060956
    12  C   -0.061085
    13  H    0.160070
    14  H    0.158886
    15  H    0.158901
    16  H    0.160083
 Sum of Mulliken charges=   0.00000

 Dipole moment (field-independent basis, Debye):
    X=     0.3829    Y=     1.8595    Z=    -0.0168  Tot=     1.8986
 Quadrupole moment (field-independent basis, Debye-Ang):
   XX=   -64.2990   YY=   -48.4714   ZZ=   -65.6502
   XY=    -0.5047   XZ=     0.4322   YZ=    -0.3014

 Normal termination of Gaussian 03 at Thu Feb 18 07:18:18 2010.
