 Gaussian 09, Revision D.01,
 Gaussian 09:  EM64L-G09RevD.01 24-Apr-2013

 ----------------------------------------------------------------
 #p HF/GEN scf=tight nosymm gfprint gfinput guess=read iop(6/7=1)
 ----------------------------------------------------------------

 ----------------------
 ch4 high ang. mo. test
 ----------------------
 Symbolic Z-matrix:
 Charge =  0 Multiplicity = 1

                          Input orientation:
 ---------------------------------------------------------------------
 Center     Atomic      Atomic             Coordinates (Angstroms)
 Number     Number       Type             X           Y           Z
 ---------------------------------------------------------------------
      1          6           0        0.000000    0.000000    0.000000
      2          1           0        0.629118    0.629118    0.629118
      3          1           0       -0.629118   -0.629118    0.629118
      4          1           0        0.629118   -0.629118   -0.629118
      5          1           0       -0.629118    0.629118   -0.629118
 ---------------------------------------------------------------------

 SCF Done:  E(RHF) =  -11.3966493419     A.U. after    1 cycles

 Alpha  occ. eigenvalues --   -3.09417  -0.50018  -0.49114  -0.49114  -0.11413
 Alpha virt. eigenvalues --    0.12575   0.12575   0.19234   0.20869   0.22242
 Alpha virt. eigenvalues --    0.26981   0.26981   0.27054   0.27232   0.27813
 Alpha virt. eigenvalues --    0.27813   0.36191   0.45029   0.45301   0.45301

 Mulliken charges:
               1
     1  C    5.935766
     2  H   -1.483941
     3  H   -1.483942
     4  H   -1.483942
     5  H   -1.483942
 Sum of Mulliken charges =   0.00000

 Dipole moment (field-independent basis, Debye):
    X=              0.0000    Y=              0.0000    Z=              0.0000  Tot=              0.0000
 Quadrupole moment (field-independent basis, Debye-Ang):
   XX=            -35.2411   YY=            -41.4133   ZZ=            -41.4133
   XY=              0.0000   XZ=              0.0000   YZ=              0.0000

 Normal termination of Gaussian 09 at Sat Jul 26 14:35:25 2014.
