 Gaussian 03, Revision D.01,
 Gaussian 03:  AM64L-G03RevD.01 13-Oct-2005

 -----------------------------------
 #P Gfinput IOP(6/7=3) HF/6-31G freq
 -----------------------------------

 (Enter /usr/local/lib/g03/l101.exe)

 Symbolic Z-matrix:
 Charge =  0 Multiplicity = 1

                          Input orientation:
 ---------------------------------------------------------------------
 Center     Atomic     Atomic              Coordinates (Angstroms)
 Number     Number      Type              X           Y           Z
 ---------------------------------------------------------------------
    1          0             0        0.000000    0.000000    0.000000
    2          6             0       -0.000920    0.000000   -0.002890
    3          1             0       -0.629710   -0.930950   -0.196670
    4          1             0       -0.629510    0.930990   -0.197090
    5          1             0        0.921460   -0.000250   -0.672830
    6          1             0        0.343260    0.000210    1.083920
 ---------------------------------------------------------------------

 SCF Done:  E(RHF) =  -40.1721595326     A.U. after    8 cycles

 Alpha  occ. eigenvalues --  -11.23118  -0.92617  -0.53278  -0.53059  -0.52812
 Alpha virt. eigenvalues --    0.24305   0.30793   0.30857   0.30960   0.76277
 Alpha virt. eigenvalues --    0.76432   0.76600   1.16162   1.17788   1.17996
 Alpha virt. eigenvalues --    1.18225   1.31381

 Mulliken atomic charges:
              1
     1  Bq   0.000000
     2  C   -0.613735
     3  H    0.153707
     4  H    0.153708
     5  H    0.153713
     6  H    0.152608
 Sum of Mulliken charges=   0.00000

 Dipole moment (field-independent basis, Debye):
    X=     0.0032    Y=     0.0000    Z=     0.0099  Tot=     0.0105
 Quadrupole moment (field-independent basis, Debye-Ang):
   XX=    -8.5659   YY=    -8.6026   ZZ=    -8.6536
   XY=     0.0000   XZ=    -0.0031   YZ=     0.0000

  Exact polarizability:  13.593   0.000  13.442   0.024   0.000  13.364
 Approx polarizability:  10.292   0.000  10.159   0.017   0.000  10.077

 ******    1 imaginary frequencies (negative Signs) ******

                     1                      2                      3
                    ?A                     ?A                     ?A
 Frequencies --     0.0000                 0.0126                 0.0127
 Red. masses --     0.0010                 0.0010                 0.0010
 Frc consts  --     0.0000                 0.0000                 0.0000
 IR Inten    --     0.0000                 0.0000                 0.0000
 Raman Activ --     0.0000                 0.0000                 0.0000

                     4                      5                      6
                    ?A                     ?A                     ?A
 Frequencies --  1575.7247              1581.4013              1584.1918
 Red. masses --     1.1864                 1.1846                 1.1842
 Frc consts  --     1.7356                 1.7455                 1.7511
 IR Inten    --    13.7596                12.3060                12.4057
 Raman Activ --     3.4382                 3.9867                 4.0189

                     7                      8                      9
                    ?A                     ?A                     ?A
 Frequencies --  1718.8498              1723.3635              2710.6044
 Red. masses --     1.0079                 1.0079                 1.0079
 Frc consts  --     1.7544                 1.7636                 4.3630
 IR Inten    --     0.0046                 0.0046                 0.0084
 Raman Activ --    47.4008                47.6854               177.7841

                    10                     11                     12
                    ?A                     ?A                     ?A
 Frequencies --  2770.5840              2775.4371              2778.9718
 Red. masses --     1.0952                 1.0967                 1.0970
 Frc consts  --     4.9534                 4.9775                 4.9914
 IR Inten    --    51.9130                48.9196                48.6338
 Raman Activ --    86.3627                83.5771                82.2135

 - Thermochemistry -
 -------------------
 Temperature   298.150 Kelvin.  Pressure   1.00000 Atm.
 Atom  1 has atomic number  0 and mass   0.00100

 Molecular mass:    16.03230 amu.
 Principal axes and moments of inertia in atomic units:
                           1         2         3
     EIGENVALUES --    12.37554  12.47031  12.57188
           X            1.00000  -0.00010  -0.00039
           Y            0.00010   1.00000   0.00011
           Z            0.00039  -0.00011   1.00000
 This molecule is an asymmetric top.
 Rotational symmetry number  1.
 Rotational temperatures (Kelvin)      6.99879     6.94560     6.88949
 Rotational constants (GHZ):         145.83127   144.72305   143.55376
    1 imaginary frequencies ignored.
 Zero-point vibrational energy     114956.1 (Joules/Mol)
                                   27.47516 (Kcal/Mol)
 Warning -- explicit consideration of   2 degrees of freedom as
           vibrations may cause significant error
 Vibrational temperatures:      0.02     0.02  2267.11  2275.28  2279.30
          (Kelvin)           2473.04  2479.53  3899.95  3986.25  3993.23
                             3998.32

 Zero-point correction=                           0.043784 (Hartree/Particle)
 Thermal correction to Energy=                    0.048520
 Thermal correction to Enthalpy=                  0.049464
 Thermal correction to Gibbs Free Energy=         0.005670
 Sum of electronic and zero-point Energies=            -40.128375
 Sum of electronic and thermal Energies=               -40.123640
 Sum of electronic and thermal Enthalpies=             -40.122696
 Sum of electronic and thermal Free Energies=          -40.166490

                     E (Thermal)             CV                S
                      KCal/Mol        Cal/Mol-Kelvin    Cal/Mol-Kelvin
 Total                   30.447             10.175             92.173
 Electronic               0.000              0.000              0.000
 Translational            0.889              2.981             34.261
 Rotational               0.889              2.981             15.325
 Vibrational             28.669              4.214             42.586
 Vibration  1             0.592              1.987             21.282
 Vibration  2             0.592              1.987             21.270

 Normal termination of Gaussian 03 at Sat Apr 11 01:28:54 2009.
